/*--------------------------------*- C++ -*----------------------------------*\
  =========                 |
  \\      /  F ield         | OpenFOAM: The Open Source CFD Toolbox
   \\    /   O peration     | Website:  https://openfoam.org
    \\  /    A nd           | Version:  7
     \\/     M anipulation  |
\*---------------------------------------------------------------------------*/
FoamFile
{
    version     2.0;
    format      ascii;
    class       featureEdgeMesh;
    location    "constant/triSurface";
    object      FULLaerob.eMesh;
}
// * * * * * * * * * * * * * * * * * * * * * * * * * * * * * * * * * * * * * //


// points:

1013
(
(2.37204 0.00308816 0.19238)
(2.48824 0.00308816 0.19238)
(2.37204 0.000688164 0.19238)
(2.48824 0.000688164 0.19238)
(2.36998 0.00188816 0.19238)
(2.37204 -0.165245 -0.0950255)
(2.48824 -0.165245 -0.0950255)
(2.37204 -0.164045 -0.0971039)
(2.48824 -0.164045 -0.0971039)
(2.36998 -0.164645 -0.0960647)
(2.37204 0.167621 -0.0971039)
(2.48824 0.167621 -0.0971039)
(2.37204 0.168821 -0.0950255)
(2.48824 0.168821 -0.0950255)
(2.36998 0.168222 -0.0960647)
(1.72 0.0957644 0.0622178)
(1.71926 0.0957644 0.0622178)
(1.7185 0.0962088 0.061448)
(1.7175 0.0962088 0.061448)
(1.71674 0.0957644 0.0622178)
(1.7133 0.0957644 0.0622178)
(1.7133 0.101764 0.0518255)
(1.71674 0.101764 0.0518255)
(1.7175 0.10132 0.0525952)
(1.7185 0.10132 0.0525952)
(1.71926 0.101764 0.0518255)
(1.72 0.101764 0.0518255)
(1.7048 0.0564357 0.0912139)
(1.7128 0.0564357 0.0912139)
(1.7048 0.107211 0.00326782)
(1.7128 0.107211 0.00326782)
(1.7203 0.101614 0.0520853)
(1.7203 0.0959144 0.061958)
(1.7048 -0.107211 0.00326782)
(1.7128 -0.107211 0.00326782)
(1.7048 -0.0564357 0.0912139)
(1.7128 -0.0564357 0.0912139)
(1.71926 -0.0957644 0.0622178)
(1.72 -0.0957644 0.0622178)
(1.7185 -0.0962088 0.061448)
(1.7175 -0.0962088 0.061448)
(1.7133 -0.0957644 0.0622178)
(1.71674 -0.0957644 0.0622178)
(1.7175 -0.10132 0.0525952)
(1.7185 -0.10132 0.0525952)
(1.72 -0.101764 0.0518255)
(1.71926 -0.101764 0.0518255)
(1.71674 -0.101764 0.0518255)
(1.7133 -0.101764 0.0518255)
(1.7203 -0.101614 0.0520853)
(1.7203 -0.0959144 0.061958)
(1.7048 0.0507757 -0.0944817)
(1.7128 0.0507757 -0.0944817)
(1.7048 -0.0507757 -0.0944817)
(1.7128 -0.0507757 -0.0944817)
(1.71926 -0.006 -0.114043)
(1.72 -0.006 -0.114043)
(1.7185 -0.0051112 -0.114043)
(1.7175 -0.0051112 -0.114043)
(1.7133 -0.006 -0.114043)
(1.71674 -0.006 -0.114043)
(1.7175 0.0051112 -0.114043)
(1.7185 0.0051112 -0.114043)
(1.72 0.006 -0.114043)
(1.71926 0.006 -0.114043)
(1.71674 0.006 -0.114043)
(1.7133 0.006 -0.114043)
(1.7203 0.0057 -0.114043)
(1.7203 -0.0057 -0.114043)
(2.4892 0.0654052 -0.0367037)
(2.4892 -0.0645116 -0.0382526)
(2.4892 0.00188816 0.0749762)
(1.7175 -0.0668595 0.0339825)
(1.7185 -0.0668595 0.0339825)
(1.7175 -0.0628595 0.0409107)
(1.7185 -0.0628595 0.0409107)
(1.7108 -0.0579213 0.0476458)
(1.7175 0.0628595 0.0409107)
(1.7185 0.0628595 0.0409107)
(1.7175 0.0668595 0.0339825)
(1.7185 0.0668595 0.0339825)
(1.7108 0.0702231 0.0263385)
(1.7128 0.062027 0.0421622)
(1.7108 0.0630491 0.0406179)
(1.7128 0.067527 0.0326359)
(1.7128 -0.067527 0.0326359)
(1.7108 -0.0667007 0.0342932)
(1.7128 -0.062027 0.0421622)
(1.7175 0.004 -0.0748933)
(1.7185 0.004 -0.0748933)
(1.7175 -0.004 -0.0748933)
(1.7185 -0.004 -0.0748933)
(1.7108 -0.0123018 -0.0739842)
(1.7128 0.0055 -0.0747981)
(1.7108 0.00365155 -0.0749111)
(1.7128 -0.0055 -0.0747981)
(0.04 -5.15488e-16 0.0234277)
(0.04 0.0155354 0.0175359)
(0.04 0.00560661 0.0227469)
(0.04 0.0219053 -0.00830757)
(0.04 0.0192806 -0.0133084)
(0.04 0.0232569 -0.0028239)
(0.04 0.0232569 0.0028239)
(0.04 0.0219053 0.00830757)
(0.04 5.21515e-16 -0.0234277)
(0.04 0.00560661 -0.0227469)
(0.04 0.0108874 -0.0207442)
(0.04 0.0155354 -0.0175359)
(0 0 0)
(0.04 -0.0155354 -0.0175359)
(0.04 -0.0192806 -0.0133084)
(0.04 -0.0108874 -0.0207442)
(0.04 -0.00560661 -0.0227469)
(0.04 -0.0219053 0.00830757)
(0.04 -0.0192806 0.0133084)
(0.04 -0.0232569 0.0028239)
(0.04 -0.0232569 -0.0028239)
(0.04 -0.0219053 -0.00830757)
(0.04 -0.00560661 0.0227469)
(0.04 -0.0108874 0.0207442)
(0.04 -0.0155354 0.0175359)
(1.7128 -0.0749986 0.000449571)
(1.7203 -0.067614 0.0324552)
(1.72 -0.0677437 0.0321837)
(1.7185 -0.0673565 0.0329864)
(1.7175 -0.0673565 0.0329864)
(1.7175 -0.0622453 0.0418392)
(1.7185 -0.0622453 0.0418392)
(1.72 -0.0617437 0.042576)
(1.7203 -0.061914 0.0423279)
(1.7048 -0.0579213 0.0476458)
(1.7128 -0.0378887 0.064726)
(1.7048 -0.0378887 0.064726)
(2.48824 0.000688164 0.0749968)
(2.14705 0.000688164 0.0749968)
(2.48824 0.00308816 0.0749364)
(2.14694 0.00308816 0.0749364)
(2.14496 0.00187585 0.0749765)
(1.7128 0.0378887 0.064726)
(1.7048 0.0378887 0.064726)
(1.72 0.0617437 0.042576)
(1.7203 0.061914 0.0423279)
(1.7185 0.0622453 0.0418392)
(1.7175 0.0622453 0.0418392)
(1.7175 0.0673565 0.0329864)
(1.7185 0.0673565 0.0329864)
(1.72 0.0677437 0.0321837)
(1.7203 0.067614 0.0324552)
(1.7048 0.0702231 0.0263385)
(1.7048 0.0630491 0.0406179)
(1.7048 0.0749986 0.000449571)
(1.7128 0.0749986 0.000449571)
(1.7048 -0.0749986 0.000449571)
(1.71926 0.0677437 0.0321837)
(1.71674 0.0677437 0.0321837)
(1.71926 0.0617437 0.042576)
(1.71674 0.0617437 0.042576)
(1.7133 0.0617437 0.042576)
(1.7133 0.0677437 0.0321837)
(1.71926 -0.0677437 0.0321837)
(1.71674 -0.0677437 0.0321837)
(1.7133 -0.0677437 0.0321837)
(1.7048 -0.0667007 0.0342932)
(1.7133 -0.0617437 0.042576)
(1.71674 -0.0617437 0.042576)
(1.71926 -0.0617437 0.042576)
(2.48824 0.0659842 -0.0356523)
(2.48824 0.0648096 -0.0377454)
(2.14444 0.0659842 -0.0356523)
(2.1445 0.0648096 -0.0377454)
(2.14243 0.0654028 -0.036708)
(1.7128 0.03711 -0.0651755)
(1.7048 0.03711 -0.0651755)
(1.7203 0.0057 -0.0747831)
(1.72 0.006 -0.0747596)
(1.7185 0.0051112 -0.0748256)
(1.7175 0.0051112 -0.0748256)
(1.7185 -0.0051112 -0.0748256)
(1.7175 -0.0051112 -0.0748256)
(1.72 -0.006 -0.0747596)
(1.7203 -0.0057 -0.0747831)
(1.7048 -0.0123018 -0.0739842)
(1.7128 -0.03711 -0.0651755)
(1.7048 -0.03711 -0.0651755)
(2.48824 -0.0638912 -0.03928)
(2.48824 -0.0651153 -0.0372155)
(2.15038 -0.0638912 -0.03928)
(2.15043 -0.0651153 -0.0372155)
(2.14837 -0.064514 -0.0382485)
(1.71926 0.006 -0.0747596)
(1.71674 0.006 -0.0747596)
(1.7133 0.006 -0.0747596)
(1.7048 0.00365155 -0.0749111)
(1.7133 -0.006 -0.0747596)
(1.71674 -0.006 -0.0747596)
(1.71926 -0.006 -0.0747596)
(1.7185 0.0967644 0.0604857)
(1.7175 0.0967644 0.0604857)
(1.7175 0.100764 0.0535575)
(1.7185 0.100764 0.0535575)
(1.7128 0.0960144 0.0617848)
(1.7128 0.101514 0.0522585)
(1.7175 -0.0967644 0.0604857)
(1.7185 -0.0967644 0.0604857)
(1.7185 -0.100764 0.0535575)
(1.7175 -0.100764 0.0535575)
(1.7128 -0.101514 0.0522585)
(1.7128 -0.0960144 0.0617848)
(1.7175 -0.004 -0.114043)
(1.7185 -0.004 -0.114043)
(1.7185 0.004 -0.114043)
(1.7175 0.004 -0.114043)
(1.7128 0.0055 -0.114043)
(1.7128 -0.0055 -0.114043)
(0.04 0.0192806 0.0133084)
(0.04 0.0108874 0.0207442)
(0.000156301 0.000225086 -0.000300114)
(0.000156301 -0.000225086 0.000300114)
(0.017919 -1.36231e-16 0.013006)
(0.0316485 0.0118552 0.0158069)
(0.0200843 0.00848946 0.0113193)
(0.017919 1.37823e-16 -0.013006)
(0.0129789 0.0061452 0.0081936)
(0.0316485 0.0197586 -1.43991e-17)
(0.0200843 0.0141491 9.25211e-18)
(0.00981188 0.00499147 0.00665529)
(0.0077705 0.00419539 0.00559386)
(0.00577225 0.00336094 0.00448125)
(0.0129789 0.010242 1.69812e-17)
(0.00455545 0.00281618 0.00375491)
(0.0316485 0.0118552 -0.0158069)
(0.0200843 0.00848946 -0.0113193)
(0.00336938 0.0022476 0.0029968)
(0.00263306 0.00186891 0.00249188)
(0.00981188 0.00831912 1.84165e-17)
(0.00191934 0.00147499 0.00196665)
(0.00149255 0.00122175 0.001629)
(0.00108116 0.000959516 0.00127935)
(0.0077705 0.00699232 1.87268e-17)
(0.00577225 0.00560156 1.83345e-17)
(0.0129789 0.0061452 -0.0081936)
(0.00455545 0.00469364 1.74833e-17)
(0.00336938 0.00374599 1.59578e-17)
(0.00263306 0.00311485 1.4558e-17)
(0.00981188 0.00499147 -0.00665529)
(0.00191934 0.00245832 1.26714e-17)
(0.00149255 0.00203625 1.11214e-17)
(0.00108116 0.00159919 9.2396e-18)
(0.000614816 0.00104752 6.67267e-18)
(0.0077705 0.00419539 -0.00559386)
(0.00577225 0.00336094 -0.00448125)
(0.00455545 0.00281618 -0.00375491)
(0.00336938 0.0022476 -0.0029968)
(0.00263306 0.00186891 -0.00249188)
(0.00191934 0.00147499 -0.00196665)
(0.00149255 0.00122175 -0.001629)
(0.00108116 0.000959516 -0.00127935)
(0.0316485 -0.0118552 -0.0158069)
(0.0200843 -0.00848946 -0.0113193)
(0.0129789 -0.0061452 -0.0081936)
(0.0316485 -0.0197586 -4.31487e-16)
(0.0200843 -0.0141491 -2.91159e-16)
(0.00981188 -0.00499147 -0.00665529)
(0.0077705 -0.00419539 -0.00559386)
(0.00577225 -0.00336094 -0.00448125)
(0.0129789 -0.010242 -1.99103e-16)
(0.00455545 -0.00281618 -0.00375491)
(0.0316485 -0.0118552 0.0158069)
(0.0200843 -0.00848946 0.0113193)
(0.00336938 -0.0022476 -0.0029968)
(0.00263306 -0.00186891 -0.00249188)
(0.00981188 -0.00831912 -1.56812e-16)
(0.00191934 -0.00147499 -0.00196665)
(0.00149255 -0.00122175 -0.001629)
(0.00108116 -0.000959516 -0.00127935)
(0.0077705 -0.00699232 -1.2843e-16)
(0.00577225 -0.00560156 -9.94767e-17)
(0.0129789 -0.0061452 0.0081936)
(0.00455545 -0.00469364 -8.1437e-17)
(0.00336938 -0.00374599 -6.35057e-17)
(0.00263306 -0.00311485 -5.19462e-17)
(0.00981188 -0.00499147 0.00665529)
(0.00191934 -0.00245832 -4.00561e-17)
(0.00149255 -0.00203625 -3.24012e-17)
(0.00108116 -0.00159919 -2.45738e-17)
(0.000614816 -0.00104752 -1.53557e-17)
(0.0077705 -0.00419539 0.00559386)
(0.00577225 -0.00336094 0.00448125)
(0.00455545 -0.00281618 0.00375491)
(0.00336938 -0.0022476 0.0029968)
(0.00263306 -0.00186891 0.00249188)
(0.00191934 -0.00147499 0.00196665)
(0.00149255 -0.00122175 0.001629)
(0.00108116 -0.000959516 0.00127935)
(1.7048 -0.034129 -0.0992147)
(1.7048 -0.0340817 -0.0987821)
(1.7048 -0.0339419 -0.09837)
(1.7048 -0.0337164 -0.0979979)
(1.7048 -0.0334156 -0.0976834)
(1.7048 -0.033054 -0.0974414)
(1.7048 0.0078012 -0.0783995)
(1.7048 0.00790726 -0.077473)
(1.7048 0.00821997 -0.0765944)
(1.7048 0.00872314 -0.0758092)
(1.7048 0.00939074 -0.075158)
(1.7048 0.0101882 -0.0746745)
(1.7048 0.0110743 -0.0743838)
(1.7048 0.0120032 -0.0743008)
(1.7048 0.0129269 -0.0744299)
(1.7048 0.0137974 -0.0747644)
(1.7048 -0.0425999 -0.0922742)
(1.7048 -0.0425029 -0.0913875)
(1.7048 -0.0422164 -0.0905428)
(1.7048 -0.0417539 -0.08978)
(1.7048 -0.0411375 -0.0891352)
(1.7048 -0.0403961 -0.0886391)
(1.7048 -0.0688579 0.0791639)
(1.7048 -0.0685069 0.0789067)
(1.7048 -0.06822 0.0785796)
(1.7048 -0.0680105 0.0781982)
(1.7048 -0.0678885 0.0777805)
(1.7048 -0.0678597 0.0773463)
(1.7048 -0.0717966 0.0324437)
(1.7048 -0.0710472 0.0318886)
(1.7048 -0.0704427 0.0311785)
(1.7048 -0.0700143 0.0303501)
(1.7048 -0.0697841 0.0294464)
(1.7048 -0.0697642 0.028514)
(1.7048 -0.0699554 0.0276012)
(1.7048 -0.070348 0.0267553)
(1.7048 -0.0709216 0.02602)
(1.7048 -0.0716466 0.0254333)
(1.7048 -0.0586119 0.0830297)
(1.7048 -0.0578925 0.0825024)
(1.7048 -0.0573041 0.0818318)
(1.7048 -0.0568748 0.0810499)
(1.7048 -0.0566247 0.0801937)
(1.7048 -0.0565656 0.0793036)
(1.7048 0.102987 0.0200507)
(1.7048 0.102589 0.0198754)
(1.7048 0.102162 0.0197904)
(1.7048 0.101727 0.0197997)
(1.7048 0.101304 0.0199029)
(1.7048 0.100914 0.0200951)
(1.7048 0.0639954 0.0459558)
(1.7048 0.06314 0.0455844)
(1.7048 0.0622227 0.0454159)
(1.7048 0.0612911 0.0454591)
(1.7048 0.0603934 0.0457116)
(1.7048 0.0595759 0.0461605)
(1.7048 0.0588811 0.0467826)
(1.7048 0.0583448 0.0475455)
(1.7048 0.0579948 0.0484099)
(1.7048 0.0578492 0.0493311)
(1.7048 0.101212 0.0092445)
(1.7048 0.100395 0.00888517)
(1.7048 0.0995205 0.00871093)
(1.7048 0.0986287 0.00873001)
(1.7048 0.0977621 0.00894153)
(1.7048 0.0969618 0.00933546)
(2.48911 0.168371 -0.0958049)
(2.48902 0.168434 -0.0956973)
(2.48918 0.168299 -0.0959302)
(2.4892 0.168222 -0.0960647)
(2.48911 -0.164495 -0.0963245)
(2.48902 -0.164433 -0.0964321)
(2.48918 -0.164568 -0.0961992)
(2.4892 -0.164645 -0.0960647)
(2.48911 0.00158816 0.19238)
(2.48902 0.0014639 0.19238)
(2.48918 0.00173287 0.19238)
(2.4892 0.00188816 0.19238)
(2.495 -0.075 -1.04046e-14)
(2.495 -0.0728206 0.0179487)
(2.495 -0.0664092 0.0348542)
(2.495 -0.0561383 0.0497342)
(2.495 -0.0426049 0.0617238)
(2.495 -0.0265954 0.0701262)
(2.495 -0.00904025 0.0744532)
(2.495 0.00904025 0.0744532)
(2.495 0.0265954 0.0701262)
(2.495 0.0426049 0.0617238)
(2.495 0.0561383 0.0497342)
(2.495 0.0664092 0.0348542)
(2.495 0.0728206 0.0179487)
(2.495 0.075 -8.82426e-15)
(2.495 0.0728206 -0.0179487)
(2.495 0.0664092 -0.0348542)
(2.495 0.0561383 -0.0497342)
(2.495 0.0426049 -0.0617238)
(2.495 0.0265954 -0.0701262)
(2.495 0.00904025 -0.0744532)
(2.495 -0.00904025 -0.0744532)
(2.495 -0.0265954 -0.0701262)
(2.495 -0.0426049 -0.0617238)
(2.495 -0.0561383 -0.0497342)
(2.495 -0.0664092 -0.0348542)
(2.495 -0.0728206 -0.0179487)
(2.48918 0.00204346 0.19238)
(2.48911 0.00218816 0.19238)
(2.48902 0.00231243 0.19238)
(2.37036 0.00231243 0.19238)
(2.37036 0.0014639 0.19238)
(2.48918 -0.164723 -0.0959302)
(2.48911 -0.164795 -0.0958049)
(2.48902 -0.164857 -0.0956973)
(2.37036 -0.164857 -0.0956973)
(2.37036 -0.164433 -0.0964321)
(2.48918 0.168144 -0.0961992)
(2.48911 0.168071 -0.0963245)
(2.48902 0.168009 -0.0964321)
(2.37036 0.168009 -0.0964321)
(2.37036 0.168434 -0.0956973)
(1.71872 0.0961406 0.0615661)
(1.7189 0.0960528 0.0617182)
(1.71905 0.0959486 0.0618987)
(1.7171 0.0960528 0.0617182)
(1.71695 0.0959486 0.0618987)
(1.71728 0.0961406 0.0615661)
(1.71728 0.101388 0.0524771)
(1.7171 0.101476 0.052325)
(1.71695 0.10158 0.0521446)
(1.7189 0.101476 0.052325)
(1.71905 0.10158 0.0521446)
(1.71872 0.101388 0.0524771)
(1.7048 0.101362 0.016255)
(1.7128 0.0962908 0.0614441)
(1.7128 0.0933245 0.0655554)
(1.7128 0.103435 0.0480437)
(1.7128 0.101357 0.0526682)
(1.7128 0.0612197 0.0895361)
(1.7128 0.0658794 0.0875389)
(1.7128 0.0703935 0.0852316)
(1.7128 0.0747415 0.0826245)
(1.7128 0.0789033 0.0797296)
(1.7128 0.0828601 0.0765602)
(1.7128 0.0865938 0.0731307)
(1.7128 0.0900872 0.0694569)
(1.7128 0.105195 0.0432894)
(1.7128 0.10663 0.0384271)
(1.7128 0.107733 0.0334789)
(1.7128 0.108499 0.0284675)
(1.7128 0.108926 0.0234158)
(1.7128 0.109009 0.0183468)
(1.7128 0.108751 0.0132838)
(1.7128 0.10815 0.00824977)
(1.7128 0.0989725 0.0571418)
(1.7048 0.108992 0.0217269)
(1.7048 0.106188 0.0400585)
(1.7048 0.0989725 0.0571418)
(1.7048 0.0877858 0.0719324)
(1.7048 0.0733119 0.0835261)
(1.7048 0.0619504 0.0833713)
(1.7048 0.0609815 0.0835666)
(1.7048 0.0628444 0.0829498)
(1.7048 0.059994 0.0835243)
(1.7048 0.0636116 0.0823267)
(1.7048 0.0590453 0.0832469)
(1.7048 0.0642074 0.081538)
(1.7048 0.0581906 0.0827505)
(1.7048 0.0704758 0.079334)
(1.7048 0.0700041 0.0794265)
(1.7048 0.0709119 0.0791316)
(1.7048 0.0695238 0.0794038)
(1.7048 0.0690629 0.0792671)
(1.7048 0.0645971 0.0806297)
(1.7048 0.0574795 0.0820641)
(1.7048 0.0686479 0.0790244)
(1.7048 0.0647581 0.0796545)
(1.7048 0.0683029 0.0786896)
(1.7048 0.0680477 0.0782822)
(1.7048 0.0569533 0.0812273)
(1.7048 0.067897 0.0778256)
(1.7048 0.0678597 0.0773463)
(1.7048 0.0566427 0.080289)
(1.7048 0.0842913 0.0683539)
(1.7048 0.0946424 0.0546418)
(1.7048 0.0565656 0.0793036)
(1.7048 0.101342 0.0388215)
(1.7048 0.0659826 0.0487919)
(1.7048 0.0660416 0.0496819)
(1.7048 0.0657325 0.0479356)
(1.7048 0.0653031 0.0471537)
(1.7048 0.0647148 0.0464832)
(1.7048 0.069241 0.0450919)
(1.7048 0.0692802 0.0447741)
(1.7048 0.0693697 0.0444667)
(1.7048 0.0695071 0.0441775)
(1.7048 0.0730124 0.0381062)
(1.7048 0.0731942 0.0378426)
(1.7048 0.103986 0.0218457)
(1.7048 0.103953 0.0214163)
(1.7048 0.103829 0.021004)
(1.7048 0.10362 0.0206277)
(1.7048 0.103335 0.0203049)
(1.7048 0.102087 0.0156683)
(1.7048 0.10266 0.0149329)
(1.7048 0.103053 0.014087)
(1.7048 0.103244 0.0131742)
(1.7048 0.103224 0.0122419)
(1.7048 0.102994 0.0113381)
(1.7048 0.102566 0.0105097)
(1.7048 0.101961 0.00979963)
(1.7048 0.0736712 0.0374185)
(1.7048 0.0734157 0.0376114)
(1.7048 -0.0647581 0.0796545)
(1.71872 -0.0961406 0.0615661)
(1.7189 -0.0960528 0.0617182)
(1.71905 -0.0959486 0.0618987)
(1.71695 -0.0959486 0.0618987)
(1.7171 -0.0960528 0.0617182)
(1.71728 -0.0961406 0.0615661)
(1.71728 -0.101388 0.0524771)
(1.7171 -0.101476 0.052325)
(1.71695 -0.10158 0.0521446)
(1.71905 -0.10158 0.0521446)
(1.7189 -0.101476 0.052325)
(1.71872 -0.101388 0.0524771)
(1.7048 -0.0646125 0.0805756)
(1.7048 -0.0642625 0.08144)
(1.7048 -0.0637262 0.082203)
(1.7048 -0.0630314 0.082825)
(1.7048 -0.0622139 0.0832739)
(1.7048 -0.0613162 0.0835265)
(1.7048 -0.0603846 0.0835697)
(1.7048 -0.0594673 0.0834012)
(1.7048 -0.101362 0.016255)
(1.7048 -0.0760466 0.0323528)
(1.7048 -0.0752463 0.0327467)
(1.7048 -0.0743797 0.0329582)
(1.7048 -0.0734879 0.0329773)
(1.7048 -0.0726131 0.0328031)
(1.7048 -0.0969618 0.00933546)
(1.7048 -0.0978537 0.00890949)
(1.7048 -0.0988216 0.00870935)
(1.7048 -0.0998093 0.00874665)
(1.7048 -0.100759 0.00901925)
(1.7048 -0.101617 0.00951129)
(1.7048 -0.102331 0.0101942)
(1.7048 -0.102862 0.0110282)
(1.7048 -0.103177 0.011965)
(1.7048 -0.103259 0.01295)
(1.7048 -0.103103 0.013926)
(1.7048 -0.102718 0.0148362)
(1.7048 -0.102126 0.0156279)
(1.7048 -0.0734157 0.0376114)
(1.7048 -0.0736712 0.0374185)
(1.7048 -0.0731942 0.0378426)
(1.7048 -0.0730124 0.0381062)
(1.7048 -0.100914 0.0200951)
(1.7048 -0.101347 0.0198877)
(1.7048 -0.101818 0.0197899)
(1.7048 -0.102299 0.0198072)
(1.7048 -0.102761 0.0199387)
(1.7048 -0.103179 0.0201767)
(1.7048 -0.103528 0.0205075)
(1.7048 -0.103787 0.020912)
(1.7048 -0.103943 0.0213669)
(1.7048 -0.103986 0.0218457)
(1.7048 -0.101342 0.0388215)
(1.7048 -0.0946424 0.0546418)
(1.7048 -0.0842913 0.0683539)
(1.7048 -0.0709119 0.0791316)
(1.7048 -0.0705236 0.0793178)
(1.7048 -0.0701045 0.0794166)
(1.7048 -0.0696739 0.0794234)
(1.7048 -0.0692519 0.0793379)
(1.7048 -0.069241 0.0450919)
(1.7048 -0.0693697 0.0444667)
(1.7048 -0.0695071 0.0441775)
(1.7048 -0.0692802 0.0447741)
(1.7048 -0.108992 0.0217269)
(1.7048 -0.106188 0.0400585)
(1.7048 -0.0989725 0.0571418)
(1.7048 -0.0877858 0.0719324)
(1.7048 -0.0733119 0.0835261)
(1.7128 -0.0612197 0.0895361)
(1.7128 -0.0658794 0.0875389)
(1.7128 -0.0703935 0.0852316)
(1.7128 -0.0747415 0.0826245)
(1.7128 -0.0789033 0.0797296)
(1.7128 -0.0828601 0.0765602)
(1.7128 -0.0865938 0.0731307)
(1.7128 -0.0900872 0.0694569)
(1.7128 -0.0933245 0.0655554)
(1.7128 -0.0962908 0.0614441)
(1.7128 -0.0989725 0.0571418)
(1.7128 -0.101357 0.0526682)
(1.7128 -0.103435 0.0480437)
(1.7128 -0.105195 0.0432894)
(1.7128 -0.10663 0.0384271)
(1.7128 -0.107733 0.0334789)
(1.7128 -0.108499 0.0284675)
(1.7128 -0.108926 0.0234158)
(1.7128 -0.109009 0.0183468)
(1.7128 -0.108751 0.0132838)
(1.7128 -0.10815 0.00824977)
(1.7048 -0.0366037 -0.0959094)
(1.71872 -0.00524754 -0.114043)
(1.7189 -0.00542318 -0.114043)
(1.71905 -0.00563152 -0.114043)
(1.71695 -0.00563152 -0.114043)
(1.7171 -0.00542318 -0.114043)
(1.71728 -0.00524754 -0.114043)
(1.71728 0.00524754 -0.114043)
(1.7171 0.00542318 -0.114043)
(1.71695 0.00563152 -0.114043)
(1.71905 0.00563152 -0.114043)
(1.7189 0.00542318 -0.114043)
(1.71872 0.00524754 -0.114043)
(1.7048 -0.0374743 -0.0962439)
(1.7048 -0.0383979 -0.096373)
(1.7048 -0.0393268 -0.09629)
(1.7048 -0.0402129 -0.0959993)
(1.7048 -0.0410104 -0.0955158)
(1.7048 -0.041678 -0.0948646)
(1.7048 -0.0421812 -0.0940794)
(1.7048 -0.0424939 -0.0932008)
(1.7048 0.0366037 -0.0959094)
(1.7048 0.010005 -0.0820347)
(1.7048 0.00926367 -0.0815386)
(1.7048 0.0086472 -0.0808938)
(1.7048 0.00818476 -0.080131)
(1.7048 0.00789824 -0.0792863)
(1.7048 0.0403961 -0.0886391)
(1.7048 0.041211 -0.0891985)
(1.7048 0.0418683 -0.0899367)
(1.7048 0.0423298 -0.0908107)
(1.7048 0.0425688 -0.0917698)
(1.7048 0.0425713 -0.0927582)
(1.7048 0.0423371 -0.0937185)
(1.7048 0.04188 -0.0945948)
(1.7048 0.0412265 -0.0953363)
(1.7048 0.0404144 -0.0958998)
(1.7048 0.0394912 -0.0962526)
(1.7048 0.0385103 -0.0963742)
(1.7048 0.0375288 -0.0962576)
(1.7048 0.00413543 -0.0823855)
(1.7048 0.00443027 -0.0825104)
(1.7048 0.00382445 -0.0823093)
(1.7048 0.00350529 -0.0822836)
(1.7048 0.033054 -0.0974414)
(1.7048 0.0334505 -0.0977134)
(1.7048 0.0337705 -0.0980721)
(1.7048 0.0339958 -0.0984968)
(1.7048 0.0341131 -0.098963)
(1.7048 0.0341159 -0.0994438)
(1.7048 0.0340038 -0.0999113)
(1.7048 0.0337834 -0.100339)
(1.7048 0.0334673 -0.100701)
(1.7048 0.033074 -0.100977)
(1.7048 0.0170505 -0.107175)
(1.7048 7.61304e-15 -0.109284)
(1.7048 -0.0170505 -0.107175)
(1.7048 -0.033074 -0.100977)
(1.7048 -0.0334294 -0.100734)
(1.7048 -0.0337246 -0.100421)
(1.7048 -0.0339457 -0.100051)
(1.7048 -0.0340827 -0.0996428)
(1.7048 -0.00443027 -0.0825104)
(1.7048 -0.00382445 -0.0823093)
(1.7048 -0.00350529 -0.0822836)
(1.7048 -0.00413543 -0.0823855)
(1.7048 0.0356798 -0.105253)
(1.7048 0.0184024 -0.111991)
(1.7048 7.62784e-15 -0.114284)
(1.7048 -0.0184024 -0.111991)
(1.7048 -0.0356798 -0.105253)
(1.7128 -0.0469307 -0.0977859)
(1.7128 -0.0428713 -0.100823)
(1.7128 -0.0386159 -0.103578)
(1.7128 -0.0341842 -0.10604)
(1.7128 -0.0295962 -0.108197)
(1.7128 -0.024873 -0.110039)
(1.7128 -0.0200362 -0.111558)
(1.7128 -0.0151078 -0.112746)
(1.7128 -0.0101104 -0.113599)
(1.7128 -0.00506676 -0.114112)
(1.7128 7.49458e-15 -0.114284)
(1.7128 0.00506676 -0.114112)
(1.7128 0.0101104 -0.113599)
(1.7128 0.0151078 -0.112746)
(1.7128 0.0200362 -0.111558)
(1.7128 0.024873 -0.110039)
(1.7128 0.0295962 -0.108197)
(1.7128 0.0341842 -0.10604)
(1.7128 0.0386159 -0.103578)
(1.7128 0.0428713 -0.100823)
(1.7128 0.0469307 -0.0977859)
(1.7098 -0.0340817 -0.0987821)
(1.7098 -0.034129 -0.0992147)
(1.7098 -0.0339419 -0.09837)
(1.7098 -0.0337164 -0.0979979)
(1.7098 -0.0334156 -0.0976834)
(1.7098 -0.033054 -0.0974414)
(1.7108 0.00790726 -0.077473)
(1.7108 0.0078012 -0.0783995)
(1.7108 0.00821997 -0.0765944)
(1.7108 0.00872314 -0.0758092)
(1.7108 0.00939074 -0.075158)
(1.7108 0.0101882 -0.0746745)
(1.7108 0.0110743 -0.0743838)
(1.7108 0.0120032 -0.0743008)
(1.7108 0.0129269 -0.0744299)
(1.7108 0.0137974 -0.0747644)
(1.7108 -0.0425029 -0.0913875)
(1.7108 -0.0425999 -0.0922742)
(1.7108 -0.0422164 -0.0905428)
(1.7108 -0.0417539 -0.08978)
(1.7108 -0.0411375 -0.0891352)
(1.7108 -0.0403961 -0.0886391)
(1.7098 -0.0685069 0.0789067)
(1.7098 -0.0688579 0.0791639)
(1.7098 -0.06822 0.0785796)
(1.7098 -0.0680105 0.0781982)
(1.7098 -0.0678885 0.0777805)
(1.7098 -0.0678597 0.0773463)
(1.7108 -0.0710472 0.0318886)
(1.7108 -0.0717966 0.0324437)
(1.7108 -0.0704427 0.0311785)
(1.7108 -0.0700143 0.0303501)
(1.7108 -0.0697841 0.0294464)
(1.7108 -0.0697642 0.028514)
(1.7108 -0.0699554 0.0276012)
(1.7108 -0.070348 0.0267553)
(1.7108 -0.0709216 0.02602)
(1.7108 -0.0716466 0.0254333)
(1.7108 -0.0578925 0.0825024)
(1.7108 -0.0586119 0.0830297)
(1.7108 -0.0573041 0.0818318)
(1.7108 -0.0568748 0.0810499)
(1.7108 -0.0566247 0.0801937)
(1.7108 -0.0565656 0.0793036)
(1.7098 0.102589 0.0198754)
(1.7098 0.102987 0.0200507)
(1.7098 0.102162 0.0197904)
(1.7098 0.101727 0.0197997)
(1.7098 0.101304 0.0199029)
(1.7098 0.100914 0.0200951)
(1.7108 0.06314 0.0455844)
(1.7108 0.0639954 0.0459558)
(1.7108 0.0622227 0.0454159)
(1.7108 0.0612911 0.0454591)
(1.7108 0.0603934 0.0457116)
(1.7108 0.0595759 0.0461605)
(1.7108 0.0588811 0.0467826)
(1.7108 0.0583448 0.0475455)
(1.7108 0.0579948 0.0484099)
(1.7108 0.0578492 0.0493311)
(1.7108 0.100395 0.00888517)
(1.7108 0.101212 0.0092445)
(1.7108 0.0995205 0.00871093)
(1.7108 0.0986287 0.00873001)
(1.7108 0.0977621 0.00894153)
(1.7108 0.0969618 0.00933546)
(2.48902 0.0656118 -0.0363331)
(2.48902 -0.0642941 -0.0386169)
(2.48902 0.0014639 0.0749857)
(1.7128 -0.0741117 0.011509)
(1.71881 -0.0674531 0.0327885)
(1.71719 -0.067453 0.0327885)
(1.7185 -0.0671925 0.0333193)
(1.7175 -0.0671925 0.0333193)
(1.7175 -0.0670268 0.0336513)
(1.7185 -0.0670268 0.0336513)
(1.7203 -0.0639802 0.0391348)
(1.7203 -0.0658818 0.0358411)
(1.7175 -0.0626563 0.0412212)
(1.7185 -0.0626563 0.0412212)
(1.7175 -0.0624515 0.0415308)
(1.7185 -0.0624515 0.0415308)
(1.71881 -0.0621222 0.0420218)
(1.71719 -0.0621222 0.0420218)
(1.7108 -0.0611623 0.0434071)
(1.7048 -0.0452219 0.0598329)
(2.48902 0.00231243 0.0749643)
(2.14536 0.0014639 0.0749857)
(2.14531 0.00231243 0.0749643)
(1.7128 0.047023 0.0584281)
(1.71881 0.0621222 0.0420218)
(1.71719 0.0621222 0.0420218)
(1.7185 0.0624515 0.0415308)
(1.7175 0.0624515 0.0415308)
(1.7185 0.0626563 0.0412212)
(1.7175 0.0626563 0.0412212)
(1.7203 0.0658818 0.0358411)
(1.7203 0.0639802 0.0391348)
(1.7175 0.0670268 0.0336513)
(1.7185 0.0670268 0.0336513)
(1.7175 0.0671925 0.0333193)
(1.7185 0.0671925 0.0333193)
(1.71881 0.067453 0.0327885)
(1.71719 0.0674531 0.0327885)
(1.7108 0.0681728 0.0312646)
(1.7048 0.0744278 0.00924689)
(1.71905 0.0675843 0.0325171)
(1.71695 0.0675843 0.0325171)
(1.71905 0.0619528 0.0422712)
(1.71695 0.0619528 0.0422712)
(1.7128 0.0551282 0.0508515)
(1.7048 0.0475023 0.0580391)
(1.7048 0.0559578 0.0499372)
(1.7108 0.0657774 0.0360324)
(1.7048 0.0728286 0.0179165)
(1.7128 0.0716028 0.0223167)
(1.7128 0.0741117 0.011509)
(1.71905 -0.0675843 0.0325171)
(1.71695 -0.0675843 0.0325171)
(1.7128 -0.0716028 0.0223167)
(1.7048 -0.0740144 0.0121187)
(1.7048 -0.0712258 0.0234923)
(1.7108 -0.0640937 0.0389487)
(1.7048 -0.0519304 0.0541132)
(1.7128 -0.0551282 0.0508515)
(1.7128 -0.047023 0.0584281)
(1.71695 -0.0619528 0.0422712)
(1.71905 -0.0619528 0.0422712)
(2.48902 0.0651965 -0.0370731)
(2.1428 0.0656118 -0.0363331)
(2.14282 0.0651965 -0.0370731)
(1.7128 0.0270887 -0.0699371)
(1.71881 0.00533089 -0.0748103)
(1.71719 0.0053308 -0.0748103)
(1.7185 0.00474091 -0.07485)
(1.7175 0.00474091 -0.07485)
(1.7185 0.00437051 -0.0748726)
(1.7175 0.00437051 -0.0748726)
(1.7203 -0.00190163 -0.0749759)
(1.7203 0.00190163 -0.0749759)
(1.7175 -0.00437051 -0.0748726)
(1.7185 -0.00437051 -0.0748726)
(1.7175 -0.00474091 -0.07485)
(1.7185 -0.00474091 -0.07485)
(1.71881 -0.0053308 -0.0748103)
(1.71719 -0.00533089 -0.0748103)
(1.7108 -0.0070105 -0.0746716)
(1.7048 -0.0292058 -0.0690798)
(2.48902 -0.0647269 -0.037887)
(2.14874 -0.0642941 -0.0386169)
(2.14876 -0.0647269 -0.037887)
(1.71905 0.00563152 -0.0747883)
(1.71695 0.00563152 -0.0747883)
(1.7128 0.0164746 -0.0731682)
(1.7048 0.0265122 -0.0701577)
(1.7048 0.015268 -0.0734295)
(1.7108 -0.00168374 -0.0749811)
(1.7048 -0.0208982 -0.0720296)
(1.7128 -0.0164746 -0.0731682)
(1.7128 -0.0270887 -0.0699371)
(1.71695 -0.00563152 -0.0747883)
(1.71905 -0.00563152 -0.0747883)
(1.7108 0.101362 0.016255)
(1.7108 0.102087 0.0156683)
(1.7108 0.10266 0.0149329)
(1.7108 0.103053 0.014087)
(1.7108 0.103244 0.0131742)
(1.7108 0.103224 0.0122419)
(1.7108 0.102994 0.0113381)
(1.7108 0.102566 0.0105097)
(1.7108 0.101961 0.00979963)
(1.7108 0.0566427 0.080289)
(1.7108 0.0565656 0.0793036)
(1.7108 0.0569533 0.0812273)
(1.7108 0.0574795 0.0820641)
(1.7108 0.0581906 0.0827505)
(1.7108 0.0590453 0.0832469)
(1.7108 0.059994 0.0835243)
(1.7108 0.0609815 0.0835666)
(1.7108 0.0619504 0.0833713)
(1.7108 0.0628444 0.0829498)
(1.7108 0.0636116 0.0823267)
(1.7108 0.0642074 0.081538)
(1.7108 0.0645971 0.0806297)
(1.7108 0.0647581 0.0796545)
(1.7108 0.0659826 0.0487919)
(1.7108 0.0660416 0.0496819)
(1.7108 0.0657325 0.0479356)
(1.7108 0.0653031 0.0471537)
(1.7108 0.0647148 0.0464832)
(1.7098 0.0695071 0.0441775)
(1.7098 0.0730124 0.0381062)
(1.7098 0.0736712 0.0374185)
(1.7098 0.0842913 0.0683539)
(1.7098 0.0709119 0.0791316)
(1.7098 0.0946424 0.0546418)
(1.7098 0.101342 0.0388215)
(1.7098 0.103986 0.0218457)
(1.7098 0.0678597 0.0773463)
(1.7098 0.069241 0.0450919)
(1.7098 0.067897 0.0778256)
(1.7098 0.0680477 0.0782822)
(1.7098 0.0683029 0.0786896)
(1.7098 0.0686479 0.0790244)
(1.7098 0.0690629 0.0792671)
(1.7098 0.0695238 0.0794038)
(1.7098 0.0700041 0.0794265)
(1.7098 0.0704758 0.079334)
(1.7098 0.0693697 0.0444667)
(1.7098 0.0692802 0.0447741)
(1.7098 0.0734157 0.0376114)
(1.7098 0.0731942 0.0378426)
(1.7098 0.103953 0.0214163)
(1.7098 0.103829 0.021004)
(1.7098 0.10362 0.0206277)
(1.7098 0.103335 0.0203049)
(1.7108 -0.0647581 0.0796545)
(1.7108 -0.0594673 0.0834012)
(1.7108 -0.0603846 0.0835697)
(1.7108 -0.0613162 0.0835265)
(1.7108 -0.0622139 0.0832739)
(1.7108 -0.0630314 0.082825)
(1.7108 -0.0637262 0.082203)
(1.7108 -0.0642625 0.08144)
(1.7108 -0.0646125 0.0805756)
(1.7108 -0.102126 0.0156279)
(1.7108 -0.101362 0.016255)
(1.7108 -0.102718 0.0148362)
(1.7108 -0.103103 0.013926)
(1.7108 -0.103259 0.01295)
(1.7108 -0.103177 0.011965)
(1.7108 -0.102862 0.0110282)
(1.7108 -0.102331 0.0101942)
(1.7108 -0.101617 0.00951129)
(1.7108 -0.100759 0.00901925)
(1.7108 -0.0998093 0.00874665)
(1.7108 -0.0988216 0.00870935)
(1.7108 -0.0969618 0.00933546)
(1.7108 -0.0978537 0.00890949)
(1.7108 -0.0760466 0.0323528)
(1.7108 -0.0726131 0.0328031)
(1.7108 -0.0734879 0.0329773)
(1.7108 -0.0743797 0.0329582)
(1.7108 -0.0752463 0.0327467)
(1.7098 -0.100914 0.0200951)
(1.7098 -0.101347 0.0198877)
(1.7098 -0.101818 0.0197899)
(1.7098 -0.102299 0.0198072)
(1.7098 -0.102761 0.0199387)
(1.7098 -0.103179 0.0201767)
(1.7098 -0.103528 0.0205075)
(1.7098 -0.103787 0.020912)
(1.7098 -0.103943 0.0213669)
(1.7098 -0.103986 0.0218457)
(1.7098 -0.101342 0.0388215)
(1.7098 -0.0946424 0.0546418)
(1.7098 -0.0736712 0.0374185)
(1.7098 -0.0731942 0.0378426)
(1.7098 -0.0734157 0.0376114)
(1.7098 -0.0730124 0.0381062)
(1.7098 -0.0695071 0.0441775)
(1.7098 -0.0692802 0.0447741)
(1.7098 -0.0693697 0.0444667)
(1.7098 -0.069241 0.0450919)
(1.7098 -0.0842913 0.0683539)
(1.7098 -0.0709119 0.0791316)
(1.7098 -0.0705236 0.0793178)
(1.7098 -0.0701045 0.0794166)
(1.7098 -0.0696739 0.0794234)
(1.7098 -0.0692519 0.0793379)
(1.7108 -0.0366037 -0.0959094)
(1.7108 -0.0424939 -0.0932008)
(1.7108 -0.0421812 -0.0940794)
(1.7108 -0.041678 -0.0948646)
(1.7108 -0.0410104 -0.0955158)
(1.7108 -0.0402129 -0.0959993)
(1.7108 -0.0393268 -0.09629)
(1.7108 -0.0383979 -0.096373)
(1.7108 -0.0374743 -0.0962439)
(1.7108 0.0375288 -0.0962576)
(1.7108 0.0366037 -0.0959094)
(1.7108 0.0385103 -0.0963742)
(1.7108 0.0394912 -0.0962526)
(1.7108 0.0404144 -0.0958998)
(1.7108 0.0412265 -0.0953363)
(1.7108 0.04188 -0.0945948)
(1.7108 0.0423371 -0.0937185)
(1.7108 0.0425713 -0.0927582)
(1.7108 0.0425688 -0.0917698)
(1.7108 0.0423298 -0.0908107)
(1.7108 0.0418683 -0.0899367)
(1.7108 0.0403961 -0.0886391)
(1.7108 0.041211 -0.0891985)
(1.7108 0.010005 -0.0820347)