/*--------------------------------*- C++ -*----------------------------------*\
  =========                 |
  \\      /  F ield         | OpenFOAM: The Open Source CFD Toolbox
   \\    /   O peration     | Website:  https://openfoam.org
    \\  /    A nd           | Version:  7
     \\/     M anipulation  |
\*---------------------------------------------------------------------------*/
FoamFile
{
    version     2.0;
    format      ascii;
    class       featureEdgeMesh;
    location    "constant/triSurface";
    object      NOaero.eMesh;
}
// * * * * * * * * * * * * * * * * * * * * * * * * * * * * * * * * * * * * * //


// points:

203
(
(2.37204 0.00308816 0.19238)
(2.48824 0.00308816 0.19238)
(2.37204 0.000688164 0.19238)
(2.48824 0.000688164 0.19238)
(2.36998 0.00188816 0.19238)
(2.37204 -0.165245 -0.0950255)
(2.48824 -0.165245 -0.0950255)
(2.37204 -0.164045 -0.0971039)
(2.48824 -0.164045 -0.0971039)
(2.36998 -0.164645 -0.0960647)
(2.37204 0.167621 -0.0971039)
(2.48824 0.167621 -0.0971039)
(2.37204 0.168821 -0.0950255)
(2.48824 0.168821 -0.0950255)
(2.36998 0.168222 -0.0960647)
(2.4892 0.0654052 -0.0367037)
(2.4892 -0.0645116 -0.0382526)
(2.4892 0.00188816 0.0749762)
(0.04 -5.15488e-16 0.0234277)
(0.04 0.0155354 0.0175359)
(0.04 0.00560661 0.0227469)
(0.04 0.0219053 -0.00830757)
(0.04 0.0192806 -0.0133084)
(0.04 0.0232569 -0.0028239)
(0.04 0.0232569 0.0028239)
(0.04 0.0219053 0.00830757)
(0.04 5.21515e-16 -0.0234277)
(0.04 0.00560661 -0.0227469)
(0.04 0.0108874 -0.0207442)
(0.04 0.0155354 -0.0175359)
(0 0 0)
(0.04 -0.0155354 -0.0175359)
(0.04 -0.0192806 -0.0133084)
(0.04 -0.0108874 -0.0207442)
(0.04 -0.00560661 -0.0227469)
(0.04 -0.0219053 0.00830757)
(0.04 -0.0192806 0.0133084)
(0.04 -0.0232569 0.0028239)
(0.04 -0.0232569 -0.0028239)
(0.04 -0.0219053 -0.00830757)
(0.04 -0.00560661 0.0227469)
(0.04 -0.0108874 0.0207442)
(0.04 -0.0155354 0.0175359)
(2.48824 0.000688164 0.0749968)
(2.14705 0.000688164 0.0749968)
(2.48824 0.00308816 0.0749364)
(2.14694 0.00308816 0.0749364)
(2.14496 0.00187585 0.0749765)
(2.48824 0.0659842 -0.0356523)
(2.48824 0.0648096 -0.0377454)
(2.14444 0.0659842 -0.0356523)
(2.1445 0.0648096 -0.0377454)
(2.14243 0.0654028 -0.036708)
(2.48824 -0.0638912 -0.03928)
(2.48824 -0.0651153 -0.0372155)
(2.15038 -0.0638912 -0.03928)
(2.15043 -0.0651153 -0.0372155)
(2.14837 -0.064514 -0.0382485)
(0.04 0.0192806 0.0133084)
(0.04 0.0108874 0.0207442)
(0.000156301 0.000225086 -0.000300114)
(0.000156301 -0.000225086 0.000300114)
(0.017919 -1.36231e-16 0.013006)
(0.0316485 0.0118552 0.0158069)
(0.0200843 0.00848946 0.0113193)
(0.017919 1.37823e-16 -0.013006)
(0.0129789 0.0061452 0.0081936)
(0.0316485 0.0197586 -1.43991e-17)
(0.0200843 0.0141491 9.25211e-18)
(0.00981188 0.00499147 0.00665529)
(0.0077705 0.00419539 0.00559386)
(0.00577225 0.00336094 0.00448125)
(0.0129789 0.010242 1.69812e-17)
(0.00455545 0.00281618 0.00375491)
(0.0316485 0.0118552 -0.0158069)
(0.0200843 0.00848946 -0.0113193)
(0.00336938 0.0022476 0.0029968)
(0.00263306 0.00186891 0.00249188)
(0.00981188 0.00831912 1.84165e-17)
(0.00191934 0.00147499 0.00196665)
(0.00149255 0.00122175 0.001629)
(0.00108116 0.000959516 0.00127935)
(0.0077705 0.00699232 1.87268e-17)
(0.00577225 0.00560156 1.83345e-17)
(0.0129789 0.0061452 -0.0081936)
(0.00455545 0.00469364 1.74833e-17)
(0.00336938 0.00374599 1.59578e-17)
(0.00263306 0.00311485 1.4558e-17)
(0.00981188 0.00499147 -0.00665529)
(0.00191934 0.00245832 1.26714e-17)
(0.00149255 0.00203625 1.11214e-17)
(0.00108116 0.00159919 9.2396e-18)
(0.000614816 0.00104752 6.67267e-18)
(0.0077705 0.00419539 -0.00559386)
(0.00577225 0.00336094 -0.00448125)
(0.00455545 0.00281618 -0.00375491)
(0.00336938 0.0022476 -0.0029968)
(0.00263306 0.00186891 -0.00249188)
(0.00191934 0.00147499 -0.00196665)
(0.00149255 0.00122175 -0.001629)
(0.00108116 0.000959516 -0.00127935)
(0.0316485 -0.0118552 -0.0158069)
(0.0200843 -0.00848946 -0.0113193)
(0.0129789 -0.0061452 -0.0081936)
(0.0316485 -0.0197586 -4.31487e-16)
(0.0200843 -0.0141491 -2.91159e-16)
(0.00981188 -0.00499147 -0.00665529)
(0.0077705 -0.00419539 -0.00559386)
(0.00577225 -0.00336094 -0.00448125)
(0.0129789 -0.010242 -1.99103e-16)
(0.00455545 -0.00281618 -0.00375491)
(0.0316485 -0.0118552 0.0158069)
(0.0200843 -0.00848946 0.0113193)
(0.00336938 -0.0022476 -0.0029968)
(0.00263306 -0.00186891 -0.00249188)
(0.00981188 -0.00831912 -1.56812e-16)
(0.00191934 -0.00147499 -0.00196665)
(0.00149255 -0.00122175 -0.001629)
(0.00108116 -0.000959516 -0.00127935)
(0.0077705 -0.00699232 -1.2843e-16)
(0.00577225 -0.00560156 -9.94767e-17)
(0.0129789 -0.0061452 0.0081936)
(0.00455545 -0.00469364 -8.1437e-17)
(0.00336938 -0.00374599 -6.35057e-17)
(0.00263306 -0.00311485 -5.19462e-17)
(0.00981188 -0.00499147 0.00665529)
(0.00191934 -0.00245832 -4.00561e-17)
(0.00149255 -0.00203625 -3.24012e-17)
(0.00108116 -0.00159919 -2.45738e-17)
(0.000614816 -0.00104752 -1.53557e-17)
(0.0077705 -0.00419539 0.00559386)
(0.00577225 -0.00336094 0.00448125)
(0.00455545 -0.00281618 0.00375491)
(0.00336938 -0.0022476 0.0029968)
(0.00263306 -0.00186891 0.00249188)
(0.00191934 -0.00147499 0.00196665)
(0.00149255 -0.00122175 0.001629)
(0.00108116 -0.000959516 0.00127935)
(2.48911 0.168371 -0.0958049)
(2.48902 0.168434 -0.0956973)
(2.48918 0.168299 -0.0959302)
(2.4892 0.168222 -0.0960647)
(2.48911 -0.164495 -0.0963245)
(2.48902 -0.164433 -0.0964321)
(2.48918 -0.164568 -0.0961992)
(2.4892 -0.164645 -0.0960647)
(2.48911 0.00158816 0.19238)
(2.48902 0.0014639 0.19238)
(2.48918 0.00173287 0.19238)
(2.4892 0.00188816 0.19238)
(2.495 -0.075 -1.04046e-14)
(2.495 -0.0728206 0.0179487)
(2.495 -0.0664092 0.0348542)
(2.495 -0.0561383 0.0497342)
(2.495 -0.0426049 0.0617238)
(2.495 -0.0265954 0.0701262)
(2.495 -0.00904025 0.0744532)
(2.495 0.00904025 0.0744532)
(2.495 0.0265954 0.0701262)
(2.495 0.0426049 0.0617238)
(2.495 0.0561383 0.0497342)
(2.495 0.0664092 0.0348542)
(2.495 0.0728206 0.0179487)
(2.495 0.075 -8.82426e-15)
(2.495 0.0728206 -0.0179487)
(2.495 0.0664092 -0.0348542)
(2.495 0.0561383 -0.0497342)
(2.495 0.0426049 -0.0617238)
(2.495 0.0265954 -0.0701262)
(2.495 0.00904025 -0.0744532)
(2.495 -0.00904025 -0.0744532)
(2.495 -0.0265954 -0.0701262)
(2.495 -0.0426049 -0.0617238)
(2.495 -0.0561383 -0.0497342)
(2.495 -0.0664092 -0.0348542)
(2.495 -0.0728206 -0.0179487)
(2.48918 0.00204346 0.19238)
(2.48911 0.00218816 0.19238)
(2.48902 0.00231243 0.19238)
(2.37036 0.00231243 0.19238)
(2.37036 0.0014639 0.19238)
(2.48918 -0.164723 -0.0959302)
(2.48911 -0.164795 -0.0958049)
(2.48902 -0.164857 -0.0956973)
(2.37036 -0.164857 -0.0956973)
(2.37036 -0.164433 -0.0964321)
(2.48918 0.168144 -0.0961992)
(2.48911 0.168071 -0.0963245)
(2.48902 0.168009 -0.0964321)
(2.37036 0.168009 -0.0964321)
(2.37036 0.168434 -0.0956973)
(2.48902 0.0656118 -0.0363331)
(2.48902 -0.0642941 -0.0386169)
(2.48902 0.0014639 0.0749857)
(2.48902 0.00231243 0.0749643)
(2.14536 0.0014639 0.0749857)
(2.14531 0.00231243 0.0749643)
(2.48902 0.0651965 -0.0370731)
(2.1428 0.0656118 -0.0363331)
(2.14282 0.0651965 -0.0370731)
(2.48902 -0.0647269 -0.037887)
(2.14874 -0.0642941 -0.0386169)
(2.14876 -0.0647269 -0.037887)
)


// edges:

237
(
(62 18)
(63 64)
(26 65)
(64 66)
(67 68)
(66 69)
(69 70)
(70 71)
(68 72)
(71 73)
(74 75)
(73 76)
(76 77)
(72 78)
(77 79)
(79 80)
(80 81)
(78 82)
(82 83)
(84 75)
(83 85)
(85 86)
(86 87)
(88 84)
(87 89)
(89 90)
(90 91)
(91 92)
(88 93)
(94 93)
(95 94)
(95 96)
(96 97)
(98 97)
(99 98)
(100 99)
(101 102)
(102 103)
(104 105)
(103 106)
(106 107)
(107 108)
(105 109)
(108 110)
(111 112)
(110 113)
(113 114)
(109 115)
(114 116)
(116 117)
(117 118)
(115 119)
(119 120)
(112 121)
(120 122)
(122 123)
(123 124)
(121 125)
(124 126)
(126 127)
(127 128)
(128 129)
(125 130)
(130 131)
(132 131)
(133 132)
(133 134)
(134 135)
(135 136)
(137 136)
(138 139)
(140 138)
(141 140)
(142 143)
(144 142)
(145 144)
(146 147)
(148 146)
(149 148)
(150 151)
(151 152)
(152 153)
(153 154)
(154 155)
(156 157)
(155 156)
(157 158)
(158 159)
(159 160)
(160 161)
(161 162)
(162 163)
(164 165)
(163 164)
(165 166)
(166 167)
(167 168)
(168 169)
(169 170)
(170 171)
(171 172)
(173 174)
(172 173)
(174 175)
(175 150)
(46 0)
(0 1)
(1 45)
(2 44)
(3 2)
(43 3)
(176 149)
(177 176)
(178 177)
(47 4)
(4 179)
(180 4)
(3 147)
(178 1)
(180 2)
(0 179)
(56 5)
(5 6)
(6 54)
(7 55)
(8 7)
(53 8)
(181 145)
(182 181)
(183 182)
(57 9)
(9 184)
(185 9)
(8 143)
(183 6)
(185 7)
(5 184)
(51 10)
(10 11)
(11 49)
(12 50)
(13 12)
(48 13)
(186 141)
(187 186)
(188 187)
(52 14)
(14 189)
(190 14)
(13 139)
(188 11)
(190 12)
(10 189)
(191 15)
(192 16)
(193 17)
(193 43)
(43 44)
(45 194)
(194 17)
(46 45)
(44 195)
(195 47)
(47 196)
(196 46)
(191 48)
(197 15)
(49 197)
(48 50)
(51 49)
(50 198)
(198 52)
(52 199)
(199 51)
(192 53)
(54 200)
(200 16)
(53 55)
(56 54)
(55 201)
(201 57)
(57 202)
(202 56)
(19 58)
(59 19)
(20 59)
(18 20)
(21 22)
(23 21)
(24 23)
(25 24)
(58 25)
(27 26)
(28 27)
(29 28)
(22 29)
(60 30)
(30 60)
2{30}
(31 32)
(33 31)
(34 33)
(26 34)
(35 36)
(37 35)
(38 37)
(39 38)
(32 39)
(40 18)
(41 40)
(42 41)
(36 42)
(61 30)
(30 61)
(40 19)
(19 18)
(41 19)
(42 19)
(36 19)
(35 19)
(37 19)
(38 19)
(39 19)
(32 19)
(31 19)
(33 19)
(34 19)
(26 19)
(27 19)
(28 19)
(29 19)
(22 19)
(21 19)
(23 19)
(24 19)
(25 19)
(20 19)
)

// * * * * * * * * * * * * * * * * * * * * * * * * * * * * * * * * * * * * * //


// ************************************************************************* //
